% Model:                Multiple_sources_network_tests.mph
% Version:              COMSOL 4.1.0.88
% Date:                 May 16 2022, 14:49
% Dimension:            2
% Nodes:                14678
% Expressions:          1
% Description:          Surface
% x                       y                        Color
67.67992480178432         60.79687852154834        0.581701334997651
68.48064690004858         61.16177097189946        0.5928053843779159
69.28067196612047         61.37614479805001        0.6017825575707162
70.08000000000001         61.44                    0.6086328545760523
68.0291668200647          61.63984667392059        0.5825036765499427
68.82954040223278         61.92947981217142        0.591469155199809
69.62921695220848         62.068594326221685       0.5983077576622108
68.37840883834507         62.48281482629282        0.5827554694954318
69.17843390441698         62.69718865244339        0.5895823774148995
68.72765085662546         63.32578297866506        0.582456713834118
70.87930037683404         61.376149203589286       0.6128283258542911
71.67929979044945         61.16179018819352        0.6149330863442055
72.47999824084626         60.79692295381271        0.6149471360457954
70.75789545783151         62.15919604938988        0.603764733612484
71.55754535305624         62.02009114348664        0.6064377317268009
72.35789428506233         61.73047801859835        0.6070200190527931
71.43579091566299         62.878392098779756       0.5996900969097277
72.23579032927843         62.664033083384005       0.6008406218601227
72.11368637349449         63.597588148169635       0.5964089444677837
65.92307704598275         59.03999824049195        0.5444115758173181
66.40589702150795         59.72841807283832        0.557016491799609
66.99151294010848         60.314044833190444       0.5694464115263866
65.9280015457798          59.90096007878237        0.5477346076040511
66.46221949284266         60.537983375131624       0.5590039092688147
67.09923338298084         61.07221359948662        0.5700982146780649
65.93292604557682         60.76192191707278        0.5496387020276353
66.51854196417736         61.34754867742493        0.5595723893748716
65.93785054537386         61.622883755363205       0.550123859088071
68.16000000000001         71.04000000000002        0.6080270227547687
67.36069962361476         71.10385079633924        0.5998045051229397
66.56070021041556         71.31820981149468        0.5909131235642063
65.76000176040247         71.68307704546639        0.5813528780785687
67.40694570880976         70.46281747957445        0.5937554390579105
66.60729581401756         70.6019223853218         0.5855178832346791
65.80694688241141         70.89153550988536        0.5766114634845434
66.65389141761953         69.88563495914889        0.5803390847779707
65.85389200442037         70.09999397430435        0.572086490763337
65.90083712642931         69.30845243872332        0.5677779599149495
70.56007520017269         71.68312147958159        0.6263312895074485
69.75935310130707         71.31822902858924        0.621190631294677
68.95932803458284         71.10385520206204        0.6150892090437837
70.24253146547657         70.73336581760901        0.6147797844950574
69.44215788268167         70.44373267884924        0.6095167516659776
68.64248133202813         70.30461816455463        0.6032929547987758
69.92498773078046         69.7836101556364         0.6047121985550219
69.12496266405627         69.56923632910922        0.5993267911096336
69.60744399608437         68.8338544936638         0.5961285316873419
73.1684180716369          60.314102979509514       0.6123134720281201
73.75404483098069         59.728487062519044       0.6081420023249902
74.23687851887763         59.040075202841315       0.6024327269364055
73.4870430603522          61.07148426562877        0.604663498704527
74.12406635541943         60.53726631998194        0.6013368830633348
74.6582965790398          59.90025243164784        0.5964724617366879
74.49408787985814         61.346045577444826       0.5956335139367186
75.07971463920197         60.76042966045437        0.5916139466720096
75.5011326993641          61.62060688926088        0.5878571817423704
74.88000000000001         56.64                    0.577664364850647
74.81614920356624         55.840699623021166       0.568084806426818
74.60179018809292         55.040700209271414       0.5577924359613429
74.23692295358006         54.24000175875077        0.5467872534542216
75.49016813535033         55.88280694936038        0.561130313426491
75.3510632293968          55.08315705399609        0.5518591481936318
75.06145010440372         54.28280812186088        0.5418751709191262
76.10033627070064         55.125613898720744       0.5460573764287913
75.88597725522736         54.325614484971005       0.5370946043869016
76.71050440605097         54.368420848081115       0.5324455538575477
74.60177097074441         58.239353103155665       0.5946654284323274
74.8161447977852          57.43932803554189        0.5864093077370746
75.30395207058804         58.69323071311956        0.58674948187575
75.59358521004185         57.892857129469846       0.5792401275760284
75.73269972466964         57.09318057789201        0.5712419510851319
76.37102562229845         58.346386223397786       0.572951669742299
76.58539944933928         57.54636115578403        0.5657002596469338
77.43809917400888         57.999541733676026       0.5610392905360523
65.92312148100363         54.23992479736436        0.4894292765070866
65.55822902920424         55.04064689698679        0.49527646616631166
65.34385520220303         55.84067196453201        0.5024380222873657
65.28000000000002         56.64                    0.5109139448702488
65.10713781332306         54.730921800593          0.48555163091349895
64.81750467392277         55.53129538417683        0.4912223033940687
64.67839015932064         56.33097193568342        0.49820734233646724
64.29115414564247         55.22191880382163        0.48073192282928207
64.07678031864128         56.02194387136686        0.48622607813119645
63.47517047796189         55.71291580705027        0.4749701522544362
67.68000175901533         52.48307704626721        0.48354754197990907
66.99158192821854         52.96589702061243        0.48372665055786773
66.4059551688813          53.55151293764481        0.4856872287335936
66.67006485687725         52.47072368054473        0.47376038630961925
66.03304156181025         53.00494162623353        0.47440693948990853
65.49881133820278         53.6419555146095         0.47683496226796485
65.66012795473917         52.45837031482224        0.4636721289948834
65.07450119540196         53.04398623185464        0.4647861267775032
64.65019105260112         52.44601694909976        0.4532827700357017
65.34385079639043         57.43930037670668        0.5205537753479134
65.558209811718           58.239299790203994       0.5317196523302697
64.73051882215705         57.474706375583835       0.510219700362377
64.86962372801605         58.27435627068584        0.5193406668236906
65.1592368528122          59.07470520257846        0.5299876797896961
64.18103764431406         58.30941275116768        0.5081386287971799
64.39539665964166         59.109412164665          0.5167407312421426
63.631556466471096        59.14411912675152        0.5046707301746575
65.07158192893291         72.16589702001204        0.572687090437711
64.48595516906644         72.75151293742714        0.5651487076511789
64.00312148080307         73.43992479771173        0.5587377297189724
64.82904278866867         71.5224688928689         0.5659017799448978
64.19201949300066         72.05668683884929        0.5582941646129237
63.65778926893574         72.69370072769911        0.5518139541352749
63.898083816934864        71.3618607402714         0.5512982336358884
63.312457057068414        71.94747665768652        0.5447487906127978
62.96712484520107         71.2012525876739         0.5375422391515406
72.31692295441258         73.4400017601928         0.6334443355352621
71.83410297933774         72.7515819281636         0.6319618200988601
71.24848706125776         72.16595516795986        0.6295908047562555
72.39072176590187         72.55860971008386        0.6261076142910422
71.85650381932446         71.9215864139674         0.6241216611296903
71.21948992974193         71.38735618967638        0.6212472080621354
72.46452057739114         71.67721765997489        0.6190710752921144
71.87890465931119         71.09159089977118        0.6165816844058122
72.53831938888042         70.79582560986594        0.6123347185384784
70.08000000000001         51.84                    0.4934698640243672
69.28069962311623         51.903850796418624       0.48867246616796445
68.48070020945467         52.11820981184103        0.4853650254864783
69.30622556326163         51.34723129737211        0.4801719361387565
68.50657566798897         51.48633620329264        0.4761958213795019
67.70622673593851         51.77594932821692        0.473709663795164
68.53245112652326         50.85446259474423        0.4672269523463426
67.73245171286172         51.068821610166644       0.46407212068423626
67.75867668978489         50.36169389211635        0.4546349126471256
72.48007519922149         52.48312147903236        0.516458581482166
71.6793531006482          52.11822902835169        0.5072855353095708
70.87932803424101         51.90385520200756        0.49962262949030456
72.05993609848751         51.66148447441958        0.5003046806999755
71.25956251599729         51.37185133590718        0.49229470719965374
70.4598859656732          51.232736821731336       0.48579487405266075
71.63979699775354         50.839847469806784       0.48498166435300416
70.8397719313464          50.62547364346268        0.4781347635249559
71.21965789701959         50.01821046519401        0.47048953244125213
73.7541029783749          53.55158192702062        0.5362283531804183
73.16848706025537         52.96595516711449        0.5261187958563996
74.30650822151404         53.29527269608238        0.5294968009075806
73.77229027485171         52.65824940026424        0.5196867834578182
73.13527638527498         52.124019176270096       0.5103261089578404
74.37609348944798         52.35054363341399        0.5132894956263871
73.7904775713285          51.76491687350786        0.5042283610006657
74.44567875738196         51.4058145707456         0.49816533761064175
65.75992480072422         79.99687852093628        0.5722632949706498
66.56064689931422         80.36177097163474        0.5795136584167456
67.36067196573948         80.57614479798931        0.586661977259727
68.16000000000001         80.64000000000001        0.593708251499594
66.0846341351957          81.08506637830985        0.5670042773503768
66.88500771770333         81.37469951683637        0.5731999536968265
67.6846842680462          81.51381403101901        0.5792935854401617
66.40934346966715         82.1732542356834         0.5615093402228444
67.20936853609241         82.387628062038          0.566650329469648
66.7340528041386          83.26144209305698        0.5557784835880527
63.638229029117504        74.24064689722744        0.5539303252819432
63.42385520218315         75.04067196465687        0.550913120155815
63.360000000000014        75.84000000000002        0.5496861143405881
62.90727778989059         73.65828357499387        0.5423158667592042
62.61764465058064         74.45865715846644        0.5387309756872086
62.47853013602188         75.25833370985272        0.536936283926114
61.81143409897811         73.87664235227601        0.5267454288208867
61.59706027204377         74.67666741970545        0.5243830511139248
60.71559040806563         74.09500112955816        0.5120264159040203
63.42385079633425         76.63930037635394        0.5500500821499261
63.63820981147292         77.43929978952404        0.551983542775255
64.00307704541603         78.23999823951034        0.5554864962165749
62.576444213088315        76.57290080202053        0.5376887099438392
62.715549118824775        77.37255069678254        0.5386344929413944
63.00516224336565         78.17289962836072        0.5411497687549405
61.7928884261766          77.30580160404102        0.5259882608450771
62.007247441315286        78.10580101721115        0.5275158590308495
61.00933263926489         78.03870240606153        0.5145847670443019
72.96000000000001         75.84000000000002        0.6333755062812907
72.89614920364879         75.04069962353942        0.6339853076027516
72.68179018845298         74.24070021027035        0.6340082506874087
73.55864637769693         75.0439914024103         0.6266813708309265
73.41954147192342         74.24434150754547        0.6266188112027273
73.12992834730531         73.44399257587213        0.6259693933377244
74.15729275539384         74.24798280482055        0.6200495057209362
73.94293374019804         73.44798339155149        0.6193145851430772
74.75593913309075         73.45197420723082        0.6134799109513203
68.95930037684593         80.5761492035874         0.6003150160010203
69.75929979047237         80.36179018818527        0.6068419270299735
70.55999824087934         79.99692295379363        0.6132889845864539
68.9805603014839          81.44648279763348        0.5890349241694575
69.78021019672009         81.30737789172612        0.5945767230121163
70.58055912873678         81.01776476682922        0.600038668382302
69.8011206029678          82.25296559526693        0.5842989461673471
70.60112001659427         82.03860657986482        0.5887757793512387
70.62168090445171         83.05944839290039        0.5795003174932633
64.48589702074607         78.92841807193444        0.5601753906103231
65.07151293918213         79.51404483240975        0.5657676568616814
63.63049041466156         79.35356109621637        0.5459356861984427
64.16470836154463         79.99058439266607        0.5504009508431477
64.80172225153369         80.52481461716697        0.5557695873454626
63.25790378390708         80.46712395292239        0.5365159735436064
63.843519702343166        81.05275071339771        0.540757608439268
62.88531715315261         81.5806868096284         0.527227358252066
71.24841807217669         79.51410297905294        0.6185046470556558
71.8340448318377          78.92848706150033        0.6230778909579459
72.31687851986236         78.24007520113584        0.6270087162933243
71.64091197063898         80.18824027853893        0.6090784130277168
72.27793526611818         79.65402233239226        0.6130212284275549
72.812165489961           79.01700844343372        0.6163216252604812
72.72182570039863         80.37955760328418        0.6046412326556567
73.30745246005966         79.7939416857316         0.6073112009861311
73.80273943015828         80.57087492802944        0.5999774434702737
72.68177097117031         77.43935310197426        0.6298500264565804
72.89614479788287         76.63932803492898        0.6319722897859025
73.3670368298197          77.89496871342142        0.6206196990846239
73.65666996882995         77.094595130318          0.6225085416030175
73.79578448324479         76.29491857933087        0.6236783372874771
74.41719513977704         77.549862225707          0.6144808477828348
74.6315689664896          76.74983715866175        0.6154172226563662
75.46735344973438         77.20475573799258        0.6085921623879574
105.60000000000002        27.84                    0.4283098700723948
105.66385079637615        28.639300376616923       0.4404552414131968
105.87820981165565        29.439299790030972       0.45262635411051866
106.24307704583855        30.239998240242155       0.46482320816436046
104.9206516297732         28.656517361361015       0.4263030935788923
105.05975653560104        29.456167256376506       0.43677002005424026
105.34936966033221        30.256516188189114       0.447262687886108
104.24130325954638        29.473034722722026       0.4232928811731714
104.4556622748259         30.273034136136083       0.4320813627830653
103.56195488931955        30.289552084083038       0.4192792328552322
106.72589702049635        30.928418071641744       0.4748398937308462
107.31151293799878        31.51404483141538        0.4834957320331451
107.99992479834587        31.996878519563058       0.4907907230712572
106.02901551958591        31.339207819460675       0.46120159098596647
106.56323346566606        31.976231115047298       0.4689975040679326
107.2002473545908         32.510461339007946       0.4754325698857119
105.81495399333329        32.4384173986792         0.45730953042613154
106.40056991083577        33.024044158452845       0.4628846710235782
105.60089246708067        33.53762697789772        0.4531470264848558
0                         0                        0
10.176600425201922        0                        0
20.35320085040384         0                        0
30.529801275605763        0                        0
6.891237789889816         6.160001093680998        0.004973488244089981
17.067838215091736        6.160001093681           0.01248318044095618
27.24443864029366         6.160001093680998        0.019992872637822384
13.782475579779632        12.320002187361997       0.019970861994588744
23.959076004981554        12.320002187362          0.03499024638832114
20.67371336966945         18.480003281042997       0.044992121251496285
0                         29.0967973514936         0
0                         19.397864900995735       0
0                         9.698932450497866        0
6.891237789889816         25.55786599467673        0.02035000414464887
6.891237789889818         15.858933544178868       0.012661746194369427
13.782475579779632        22.018934637859864       0.03534737789514764
106.2431214801278         25.439924798881314       0.3908888633855068
105.87822902882546        26.240646898037618       0.4033056690170766
105.6638552021162         27.040671965077177       0.41577933791270594
105.24071791318087        25.784104767876936       0.38625364746474783
104.9510847741751         26.584478350974873       0.3971421989610068
104.81197025976236        27.38415490195606        0.4080876137213252
104.23831434623395        26.12828473687256        0.38071209601342026
104.02394051952471        26.92830980391213        0.3900723933743684
103.23591077928702        26.472464705868184       0.37426420903152424
108.80064689766672        32.361770971040855       0.49559490985705607
109.60067196488475        32.57614479785317        0.49844440784516664
110.40000000000002        32.64                    0.499339217035589
108.32192022649832        33.06126787123018        0.4829821180700807
109.12229380976777        33.35090101037524        0.4860033796814556
109.92197036093441        33.49001552485481        0.4870699524951423
108.64391565465074        34.125657222897296       0.47605993626898385
109.44394072186881        34.34003104970962        0.47729827270593495
108.96591108280317        35.19004657456441        0.47002417766796695
40.469297012776174        0                        0
50.40879274994659         0                        0
60.34828848711701         0                        0
35.748516969232334        7.414367127266145        0.0318040331836984
45.68801270640276         7.414367127266146        0.041062980588290346
55.62750844357317         7.414367127266145        0.05032192799288229
40.967232662858905        14.82873425453229        0.07336541276321054
50.90672840002934         14.828734254532293       0.09188330757239446
46.18594835648549         22.243101381798436       0.12468413873853647
135.04312147881373        65.7599248011572         0.6141247858486413
134.6782290282571         66.56064689961416        0.6234295343867484
134.46385520198587        67.3606719658951         0.6322508393206183
134.39999999999998        68.16000000000001        0.6405887006502512
134.03442210458508        66.05477780241438        0.6119186937457575
133.74478896617114        66.85515138478334        0.619893604433067
133.60567445204256        67.65482793497627        0.6273850715161391
133.0257227303564         66.34963080367157        0.6092334744400834
132.81134890408518        67.14965586995254        0.6158785472765953
132.01702335612774        66.64448380492877        0.6060691279316196
0                         58.1935947029872         0
0                         48.494662252489334       0
0                         38.79572980199146        0
9.29642438118821          52.523291540030584       0.052571646462158346
9.29642438118821          42.82435908953273        0.04380175182621142
9.29642438118821          33.12542663903485        0.03503185719026447
18.592848762376416        46.852988377073956       0.09658065371173095
18.59284876237642         37.154055926576106       0.07904086443983707
27.889273143564626        41.18268521411734        0.1320270217487178
108.00000175966818        23.683077045890304       0.3625942710549775
107.3115819281419         24.165897020679143       0.37044131669730557
106.72595516829509        24.75151293834281        0.3798728474741486
106.96763143986463        23.585799074268085       0.3558050140437476
106.3306081441781         24.120017020494338       0.36323392714236546
105.79637792017103        24.75703090959542        0.3722473253754983
105.93526112006107        23.488521102645862       0.3480560186057317
105.3496343602143         24.074137020309536       0.3550667991606393
104.90289080025752        23.391243131023636       0.3393472847409299
111.1993003767969         32.576149203595214       0.4977283544345039
111.99929979037782        32.36179018821935        0.4941446510402756
112.79999824074284        31.996922953872406       0.4885881068529041
111.19709759609498        33.40640121493722        0.4864810016813279
111.99674749128388        33.2672963090469         0.48377746977502034
112.79709642325685        32.977683184185494       0.47910109707556936
111.9941951921899         34.17280242987444        0.475327295789748
112.79419460577088        33.95844341449858        0.47153109457821785
112.79129278828488        34.93920364481166        0.46587809936084934
67.93092488578066         0                        0
75.51356128444428         0                        0
83.09619768310793         0                        0
64.23968544754183         5.821480075593563        0.0456829038299254
71.82232184620548         5.821480075593563        0.051192182259667186
79.4049582448691          5.821480075593563        0.056701460689408956
68.13108240796663         11.642960151187125       0.09679406328835238
75.7137188066303          11.642960151187125       0.10781262014783594
72.02247936839146         17.464440226780688       0.1533334783752809
136.8000017604879         64.00307704541703        0.5885428265133836
136.11158192793246        64.48589702085869        0.5965827504872585
135.5259551673744         65.07151293943873        0.6051100702656775
135.9220773719559         63.89761053251667        0.587024621644084
135.28505407539916        64.43182847952752        0.5944068493398373
134.7508238508398         65.06884236967677        0.6022764728401351
135.04415298342388        63.7921440196163         0.584712541598374
134.45852622286588        64.37775993819638        0.5914370730160061
134.16622859489192        63.686677506715945       0.5816065863762541
134.46385079634354        68.95930037641237        0.6481560761612608
134.67820981151348        69.75929978963664        0.6551893626229148
135.04307704550982        70.5599982396729         0.6616885600352134
133.6410293035888         68.90513637019697        0.6381720822817958
133.78013420934556        69.70478626501531        0.6445851791994328
134.06974733392866        70.50513519664557        0.6504641870677137
132.8820586071776         69.65027274039392        0.6357321340191247
133.0964176223476         70.45027215361823        0.6409909523433888
132.12308791076646        70.39540911059088        0.633268855862238
127.20000175992298        83.20307704574319        0.6828221201202367
126.51158192715191        83.68589702151743        0.6826551662558311
125.92595516650044        84.27151294047665        0.6828785427351171
125.44312147796867        84.95992480262086        0.6834922495580946
126.12923428697843        82.94607778040637        0.674600104744659
125.49221099026718        83.48029572777313        0.674461331837388
124.95798076567556        84.11730961832482        0.6747128892738085
125.05846681403386        82.68907851506957        0.6667544322821499
124.47284005338247        83.27469443402882        0.6666438403320134
123.98769934108931        82.43207924973278        0.6592851027327092
55.20007519901211         198.40312147891152       0.6272539923847565
54.39935310050313         198.03822902829947       0.6196878609722238
53.59932803416575         197.82385520199563       0.6097332963872132
52.8                      197.76000000000002       0.5973902986297246
54.899098759843625        197.66785186586858       0.6172481823391551
54.09872517742045         197.37821872741063       0.6088934259229173
53.29904862716889         197.23910421326087       0.5981502363342013
54.59812232067514         196.93258225282557       0.6079690951020851
53.798097254337776        196.71820842652176       0.598825713682142
54.29714588150666         196.19731263978258       0.5994167306735464
46.560001759649325        163.8430770459012        0.5296480758061525
45.87158192840301         164.32589702045817       0.5211181337242751
45.28595516873428         164.91151293782065       0.5140170268298653
44.80312148064313         165.59992479798876       0.5083447551229232
45.65639330963394         163.77247682143502       0.5140775064935191
45.01937001417643         164.30669476739473       0.5066695487614863
44.48513979029648         164.94370865616003       0.500690426216921
44.752784859618565        163.70187659696876       0.49927178305461056
44.16715809994984         164.28749251433132       0.4929858096724222
43.84917640960319         163.63127637250255       0.48523090548942704
0                         87.2903920544808         0
0                         77.59145960398294        0
0                         67.89252715348508        0
7.933749532340327         81.43745107400764        0.058351938072585506
7.933749532340325         71.73851862350979        0.054328884280950646
7.933749532340325         62.03958617301191        0.05030583048931578
15.867499064680652        75.58451009353449        0.11359950549796387
15.867499064680654        65.88557764303664        0.10555339791469415
23.80124859702098         69.73156911306134        0.16574270227613505
125.07822902789164        85.76064690062805        0.6844075689201934
124.8638552019021         86.56067196642108        0.6854990412478377
124.80000000000003        87.36                    0.6867666665410274
124.62507056364173        85.3115627104003         0.6783006667297904
124.33543742560845        86.11193629230043        0.6790878224132253
124.19632291166262        86.9116128419864         0.6800511310622054
123.80701964931478        85.66320061817973        0.6730963540593263
123.59264582332526        86.46322568397281        0.6737553460640974
122.98896873498782        86.01483852595918        0.6678793115467028
110.40000000000002        23.04                    0.3518679912005191
109.60069962335086        23.103850796381263       0.35320316924533474
108.8007002099069         23.318209811678024       0.3567785958634875
110.04657427436992        22.361358968432107       0.33761615636317815
109.2469243793234         22.500463874271126       0.3400557834245597
108.44657544748203        22.790076999025644       0.3447356590592783
109.6931485487398         21.682717936864215       0.32371802967613933
108.8931491352959         21.89707695216099        0.3272621057540867
109.33972282310972        21.004076905296326       0.31017361113940256
112.80007520134387        23.683121480257785       0.3611450719514663
111.99935310211839        23.31822902888167        0.3557645769474529
111.19932803500376        23.103855202129072       0.3526722166971371
112.51564131259096        22.794577378170153       0.34318765764911185
111.7152677294209         22.5049442391058         0.3391325218060545
110.91559117836172        22.365829724664966       0.3373655207166948
112.23120742383803        21.90603327608252        0.3258927792989867
111.43118235672343        21.691659449329936       0.32316300261688546
111.94677353508511        21.017489173994893       0.3092604369010911
114.55692295347811        25.44000175857425        0.3878574487923998
114.07410297883474        24.751581927563624       0.37738846499644096
113.48848706145665        24.165955168124796       0.3684843393827964
114.60943632161407        24.692736260442157       0.3715560522038559
114.07521837560336        24.055712965217435       0.36234712801956487
113.43820448685791        23.521482741564512       0.3547030620175881
114.66194968975002        23.94547076231006        0.35589515420987083
114.07633377237198        23.359844002871245       0.34794628963724766
114.714463057886          23.198205264177965       0.3408747548104447
115.20000000000002        27.84                    0.4244814905846031
115.1361492035561         27.04069962295772        0.4121775281795539
114.92179018804879        26.240700209149136       0.39996951424881944
115.7032394274407         27.11958769447184        0.4044386861096739
115.56413452146512        26.31993779904641        0.3928301928979103
115.27452139642608        25.519588866854672       0.38131764816046143
116.20647885488135        26.39917538894367        0.385591375774986
115.99211983937408        25.599175975135097       0.37467835175650804
116.70971828232204        25.67876308341551        0.36793955958053953
113.48841807258007        31.514102978711264       0.48086645222815877