% Model:                alpha500_Robin_Sources.mph
% Version:              COMSOL 4.1.0.88
% Date:                 May 21 2022, 12:56
% Table:                Table 1 - Line Integration 1 (lpeq.g_u)
% Boundary flux/source   Boundary flux/source     Boundary flux/source     Boundary flux/source     Boundary flux/source     Boundary flux/source     Boundary flux/source     Boundary flux/source     Boundary flux/source     Boundary flux/source     Boundary flux/source     Boundary flux/source     Boundary flux/source     Boundary flux/source     Boundary flux/source     Boundary flux/source     Boundary flux/source
0.4688440832105534       0.38685751129454327      0.337554344496061        0.35565560361335985      0.29136064991965205      0.4941581184292578       0.3984817009974769       0.31278134097688176      0.2542919058889068       0.24843500831290583      0.2800491855737854       0.3732189049393029       0.40258827285309456      0.3411231229678291       0.4347646293506152       0.3763311437988613       0.42942438862405274